LAMMPS data file via write_data, version 29 Sep 2021, timestep = 2000000

4160 atoms
5 atom types

2.6856134602406527 89.91438653975037 xlo xhi
3.7188747731858776 45.481125226809986 ylo yhi
3.2650471961907 14.734952803808934 zlo zhi

Masses

1 12.0107
2 1.00794
3 15.9994
4 16
5 1

Atoms # charge

1 1 0.01787202309925555 4.689856484975353 6.122999293619036 6.143017429774666 0 0 0
3 1 0.04258675463834435 3.507947044307932 6.873942933695908 6.45751781938184 0 0 0
11 1 0.02755303885385032 4.648992053941526 9.042607446296573 6.126666552568953 0 0 0
12 1 0.04873293452096199 3.4626801311056106 8.336331869579467 6.347126199583211 0 0 0
2 1 0.027249416824705965 4.769831621372131 4.740089036977652 5.87218828539644 0 0 0
134 1 0.19763932136030807 4.614598188065644 10.385174344374416 5.62891811357926 0 0 0
909 3 -0.614638073624356 11.835806544748793 6.372059685054485 6.5081743735996005 0 0 0
14 1 0.01026398903635587 5.839480757133021 8.277740585065047 5.8981496558030315 0 0 0
7 1 0.04711893161985205 5.849424124562592 6.833583050013553 5.81097357013963 0 0 0
988 3 -0.551046684418329 10.515228786159478 6.752346779622989 8.944861579981072 0 0 0
15 1 0.08963632407694809 7.066251353673062 8.989535298084562 5.747922579843342 0 0 0
136 1 0.11203930460973699 7.015698746686313 10.36625207328638 5.655884428498716 0 0 0
8 1 -0.003626503682431236 6.8635134090437875 6.337572100766325 5.062449638441183 0 0 0
9 1 0.06708841502457803 6.964296545978611 4.858127502032951 4.863219034908213 0 0 0
30 1 0.004402881838486559 8.095128442670873 8.362696435252385 5.093632772540291 0 0 0
23 1 0.1993795594228264 11.843754058125356 6.129027858889767 5.017953048140776 0 0 0
910 2 0.3487232431914297 10.94833765243612 6.111458772109142 6.717856110011888 0 0 0
154 1 -0.0010792733345229844 9.414414835445475 10.347707133304997 5.211522739340605 0 0 0
19 1 0.038297472599690276 9.421854960870217 4.849921899642342 4.536020382066344 0 0 0
24 1 0.017527895239842214 11.821890032989131 4.660541429630719 4.72929887470954 0 0 0
28 1 0.06996104355666144 9.402020288207954 9.019974207744088 4.8755606991838745 0 0 0
155 1 0.041159515174900914 11.863905887833639 10.31251013775487 5.07685590264979 0 0 0
26 1 0.21320222337663977 13.072744920344485 6.698988728817097 4.606461574303949 0 0 0
32 1 0.04210265755049585 13.071705355266552 8.109128244662102 5.02974346658598 0 0 0
31 1 0.041830594264918614 11.92366381662093 8.910699224695794 4.76412485824975 0 0 0
29 1 0.05196880062190406 10.641126977227671 8.297394154375667 4.620455169458229 0 0 0
16 1 -0.04329746041982202 10.749393281761755 6.851107004517921 4.4334705003372665 0 0 0
18 1 0.24224464526265577 7.711928022831092 7.220393497106016 4.352101681089475 0 0 0
22 1 0.05363980589082948 8.176980512801364 4.22798252913454 4.705566756262229 0 0 0
17 1 0.2676997675565295 9.694932355700434 6.151751865314628 3.8740633130488003 0 0 0
1143 1 0.29285257584309893 11.72212029290953 6.110475358113198 9.521259168135346 0 0 0
1134 1 0.020648760054773164 9.205150553816019 6.267715563842932 11.083291479437882 0 0 0
1126 1 0.055143556068263974 7.074769705398171 4.607308656861776 11.757079480887903 0 0 0
1125 1 0.04286199184796498 7.035672276061732 6.082609819437079 12.083844544181567 0 0 0
1129 1 1.3598547902268776e-05 4.85638085218282 4.596048269492761 12.783041918719114 0 0 0
1128 1 0.045128670790373866 4.599893533531755 6.070351594542503 12.503953386392688 0 0 0
1137 1 0.04121408871279613 7.0342674597233055 8.990988983708792 12.177591305200279 0 0 0
1138 1 0.03878100931257267 5.885617347201707 8.238691976578508 12.349426835440127 0 0 0
1127 1 0.0188185733608857 5.865756737650981 6.7817103824024425 12.432644425917655 0 0 0
1252 1 0.04396468218496907 4.6157972645759955 10.3550555539517 12.297377811532906 0 0 0
1139 1 0.042610295265462686 4.56449771377775 8.91208544732996 12.323770185040937 0 0 0
1142 1 -0.03502169899148026 12.870814608465912 6.789805637649833 9.952743654480749 0 0 0
3602 1 0.019810441464789136 3.3589134736018926 8.175509179352193 12.200063928461473 1 0 0
1144 1 0.2922522124905486 9.856193590164086 7.1537663065547425 10.20040452935784 0 0 0
1154 1 0.05514633307650838 11.563496118943567 8.975894323354341 10.292593570958058 0 0 0
1155 1 0.06249863087840067 12.782652913406988 8.198052287801348 10.08935771270671 0 0 0
21 3 -0.5000271624017097 8.570748587283578 6.793450257671475 14.654406668933415 0 0 -1
1007 3 -0.6350650970750884 6.7060534150914775 10.10603406529545 10.099937183393514 0 0 0
1271 1 0.03452021840502709 11.659979788483662 10.362225407120853 10.454395059258417 0 0 0
3591 1 0.03328741760091905 3.408294992947561 6.731094319415896 12.330842547650331 1 0 0
1145 1 0.024241667073933867 11.584958542982593 4.81771328291144 10.17852070712436 0 0 0
1156 1 0.003337696392864825 10.341091623360251 8.369138965341579 10.834453204879562 0 0 0
2013 4 -0.8780933308905381 8.353008949672766 8.726535690194455 7.770628761339769 0 0 0
2289 4 -0.7758631351801146 11.262333533771418 5.881322432545645 12.599212792196003 0 0 0
2121 4 -0.8227131266188111 8.910409868010323 5.851945168764486 6.839556463777314 0 1 0
25 3 -0.4741176215304092 13.001805208768765 6.707283323897336 14.55267992354841 0 0 -1
1133 1 0.07266041835567952 8.191612927883936 6.850701907807894 11.914184372608121 0 0 0
1135 1 0.06779186022153869 9.223900116362696 4.830260756811686 10.730881517403608 0 0 0
1140 1 0.05921734256757633 8.202593213698846 8.312141465752829 11.93996146785447 0 0 0
1253 1 0.208485503392232 6.918118322466821 10.301000742687105 11.619241259192957 0 0 0
1255 1 0.2236289843311418 9.233839077959722 10.287555566124306 11.103712683843767 0 0 0
1141 1 0.026168123071719226 9.330518608884855 8.98451143955534 11.517160153374608 0 0 0
2015 5 0.3771624207819855 9.118576674718774 9.191156524062261 7.520249214526618 0 0 0
2290 5 0.34690847798517005 12.116105035792748 6.057980237283612 13.06957336330534 0 0 0
2122 5 0.41220007964381883 9.0939355984942 6.710105735261495 7.189015086187843 0 1 0
2123 5 0.4113335088444736 9.17157651563642 5.140123472785225 7.432965571074886 0 1 0
1147 1 0.013800670084992379 10.334264679138375 4.25457458553409 10.303733894624223 0 0 0
20 1 0.0032773362929896938 10.602549424156425 4.109667310591246 4.666549674613345 0 0 0
10 1 -0.00815173206595288 5.859774610254684 4.082300580520087 5.208356288128984 0 0 0
1146 1 0.0317220983170836 12.771558914587922 4.169289488990862 10.040562928770214 0 0 0
1136 1 0.023788936769328098 8.141881046726384 4.000821079272105 11.123855100201965 0 0 0
2291 5 0.34953590178022154 10.911103032346404 5.194517223937122 13.124274021559012 0 0 0
2014 5 0.426230388860231 7.927778604452706 9.155758355942389 8.491271011733652 0 0 0
3894 4 -0.8124226339618563 6.930443058737407 6.731502968943209 9.296501207377265 1 1 0
3895 5 0.3883648425666387 7.0837001399681 7.299241360123055 8.506226271350405 1 1 0
3896 5 0.41948107278700114 6.864913927693216 5.766891363563271 9.113300752671194 1 1 0
1131 1 0.0596449920052518 4.431401798530479 3.964977782635643 13.884667606209193 0 0 0
3991 5 0.3091093907286869 3.3618667686583477 8.263239092995317 3.2874555594326136 1 0 1
3990 4 -0.859028799682583 4.110437193220709 7.712581606726571 3.54390411431341 1 0 1
3992 5 0.3864220742601444 4.822104957376846 8.321734018993912 3.7563297139039205 1 0 1
3893 5 0.3505824530982021 4.440097329687739 6.613302785316159 9.841473635202227 1 0 0
3891 4 -0.7741230588152264 4.018609258356413 5.809076601061246 9.52014683830254 1 0 0
3892 5 0.34582098046249643 4.598816502608958 5.27992546945194 8.978763149976823 1 0 0
132 3 -0.7108960123545838 4.57647427434136 10.329857462777447 4.075162340893254 0 0 0
3812 5 0.35054032117214096 5.177947381158205 7.932652379717185 9.28262741887411 1 0 0
3811 5 0.3992619059428353 4.784953488047158 9.30889029255962 8.65959710528747 1 0 0
3810 4 -0.8241785827317675 4.417724667372909 8.53441909244174 9.047377732977193 1 0 0
27 1 -0.04256110522286378 12.932570219148127 3.8619069628073794 5.171776211497077 0 0 0
1130 1 0.06074763061045815 5.959607735728891 3.8290711399455084 11.978887069897796 0 0 0
3949 5 0.38763672739187865 11.086072502855629 8.482509946545767 7.719862761483985 1 0 0
3948 4 -0.8145944516384366 11.032332832916296 9.39912507143971 7.595625289447184 1 0 0
3950 5 0.3515390466830538 10.405492752421527 9.640817950968469 8.330239151156619 1 0 0
4160 4 -0.7928735203261951 11.991886511614622 10.168970919019536 13.257606106926849 0 0 0
2345 5 0.35462045642278106 11.253073106880512 9.767087792405231 13.70773277918493 0 0 0
135 3 -0.36724099650138864 7.274717977881956 10.62279131245367 4.158553673497961 0 0 0
4016 5 0.3988505092978941 2.946994360598183 6.314123894367514 3.3445362305527766 1 1 1
3951 4 -0.845923989137123 6.371673524284381 4.016311924329519 8.68323471530945 1 0 0
6 1 -0.007544446179725408 3.6295835084943633 3.9466019382034623 6.195884701898951 0 0 0
278 1 0.00027708161106108214 4.65007741477821 18.57429776753667 7.105800241622273 0 0 0
1152 2 0.33358854550810113 13.474056889579561 6.118787037566066 12.319643125706213 0 0 0
1008 3 -0.4995373991400944 9.396113671964269 10.510517055398177 9.637543321165175 0 0 0
1502 2 0.3865979554157112 4.487770200636772 22.888235921579017 3.429732012869621 0 0 1
1501 1 0.056046748263488794 8.026483502262508 23.607357595909914 12.24713540912264 0 0 0
1254 3 -0.5982651374745699 8.723391001117733 10.815240214658983 13.197245170330032 0 0 0
3874 5 0.3696669676243124 4.2262073681883425 11.325602074176427 8.329535526656649 1 0 0
923 2 0.3245129163766646 6.740213687480149 11.289188984286879 7.919277129471948 0 0 0
2344 5 0.3810984450820047 12.066421704381957 11.104080433218439 13.612207856166423 0 0 0
3875 5 0.3937721166155713 4.367762601127551 12.633592297473704 9.244959723927005 1 0 0
169 3 -0.4118865595292519 13.484833806695889 14.874438511894436 4.716375790662355 0 0 0
922 3 -0.7056190406740802 5.931123541610097 10.866985426203215 7.593728234493537 0 0 0
2038 5 0.34170750190146787 4.633776293844592 14.650264826405643 9.251508466580947 1 1 0
2037 4 -0.8611312584146891 3.7632995216135257 15.12071540809646 9.2639229476743 1 1 0
143 2 0.3740293955375325 4.6676257793520515 11.212775320651794 3.908891668420386 0 0 0
1011 2 0.36112127045159076 6.482691329352061 10.90676193177666 9.742042746330124 0 0 0
2039 5 0.3532587614767919 3.996963259896114 16.02233012637963 9.362564794600251 1 1 0
163 1 0.013350978772843004 13.091910381367537 10.954666596757356 5.353058729681538 0 0 0
3714 1 0.022936420069773707 3.357140122774486 11.003333141630868 12.326817982097992 1 0 0
2183 5 0.4075385585120908 10.86239051834057 13.537742695352 13.672502131318447 0 0 0
142 1 -0.003638272445949501 3.458972599544575 11.04659719244642 6.062498855825103 0 0 0
1261 1 0.16155475237478345 8.13285928845891 11.020429583381521 11.76977085215711 0 0 0
1259 1 0.015826825575850818 5.8212523079788046 11.124772656391366 12.094772196673974 0 0 0
1263 2 0.41556650923131316 8.407919630779663 11.590327297549175 13.700416384056243 0 0 0
146 1 0.21157596462436928 5.870252882678634 11.035112909526411 6.093213107465188 0 0 0
926 3 -0.5824717146239583 11.846984210867 14.106174490875027 7.743030464098342 0 0 0
139 1 0.21214931806515913 4.571518432194555 13.213722613613522 5.464419558236675 0 0 0
140 1 0.018714332693875298 3.510869323454117 12.452503224169433 5.999668462684578 0 0 0
145 1 -0.023764417094844687 5.813019450540934 12.548131482203992 5.596024988065803 0 0 0
147 1 0.06937130087119454 7.007628460398494 13.194085184607326 5.3253721266461795 0 0 0
157 1 0.04730593126786882 9.441883511577913 13.223241458217824 5.668687222515777 0 0 0
158 1 -0.009229437493770629 8.21859678717341 12.577947613334953 5.410288769753511 0 0 0
156 1 0.030915187552743327 10.693980183201191 12.464314603013747 5.582077211938637 0 0 0
160 1 0.1555244663459107 8.221275035190772 11.132447927278001 5.277858970267319 0 0 0
161 1 0.06749627938284915 11.905174653079449 13.156173645445183 5.584595692874204 0 0 0
162 1 0.03452250416845972 13.05250342272489 12.370818750694614 5.639734242774446 0 0 0
159 1 0.052089642784345594 10.632838602221938 11.028214881248081 5.3570844064349 0 0 0
138 3 -0.7486502629618448 4.137348150164522 13.342922398476988 3.873139123598796 0 0 0
2222 5 0.3536087068181236 6.012740585457868 12.74677931418295 14.281918733780946 0 0 0
1273 1 0.03559220701243066 12.861063504517848 12.447969295550505 10.764141050883303 0 0 0
1256 1 0.25270527183454455 6.76201558599188 13.240301979101416 11.341722047595331 0 0 0
1274 1 0.054033614350469744 11.589208336269984 13.133173136441854 10.974961285390627 0 0 0
1260 1 -0.004739037361576513 8.038154476141198 12.506609395659272 11.32129406562759 0 0 0
1275 1 0.01604786971079603 10.350138738583563 12.470938987754298 10.958252234337436 0 0 0
1262 1 0.054474226674998974 9.161358809503861 13.214810821690078 10.980549796841196 0 0 0
1276 1 0.03680641610495333 12.832533457138437 11.068978348583205 10.453493981951315 0 0 0
3719 1 0.02954157347523216 3.374717045638102 12.439028932937552 12.44411018106063 1 0 0
137 2 0.4056135039071194 4.535230919044748 14.117163663962486 3.714852079315002 0 0 0
1010 3 -0.7359571475880553 6.1720069992638305 13.355606029156904 9.880414143359438 0 0 0
1257 1 0.03212303044338266 5.793158561082942 12.502622388783609 12.01945461464187 0 0 0
1277 1 0.15863281982959637 10.414614485231152 11.02560065256841 10.740480771117952 0 0 0
1258 1 0.03424368757200263 4.598901349992692 13.171090071810344 12.182129474196818 0 0 0
2181 4 -0.8179993773925176 11.539034283537509 12.852094106986478 13.93252004131888 0 0 0
1009 2 0.3875422193084915 6.895195830761547 13.777300086545912 9.441529833487108 0 0 0
2220 4 -0.7762894926614333 6.9813405144234695 12.765612227113717 14.054653833875507 0 0 0
2221 5 0.38517406243683067 7.2753443588266205 13.699229999168171 14.162504896712987 0 0 0
1269 2 0.33133199897318444 9.033120953441307 15.055445163130381 14.041514200833065 0 0 0
148 1 0.052680568936380026 3.539055732183331 15.278580097670295 6.0736933782090325 0 0 0
151 1 0.20307271014381226 6.066844339568782 15.184858838515263 6.1784959598658 0 0 0
270 1 0.013020471265633899 4.734488604997363 17.317722108726777 6.5023298237811 0 0 0
273 1 -0.010382263129204622 3.4812764278079738 16.6962449147071 6.29802753124564 0 0 0
274 1 0.038721095783872866 5.962412915689171 16.658990952015138 6.41272744707701 0 0 0
275 1 -0.07227188105531904 6.983797228616705 17.400995899180277 7.092901487969273 0 0 0
290 1 0.22131996268942714 10.591887247940544 16.637555381234232 6.849870361850341 0 0 0
291 1 0.2943752243305442 8.241618264098264 17.288163103404095 6.370808849805879 0 0 0
293 1 0.035925557570295516 11.928601782363197 17.200715225227874 6.676083877790569 0 0 0
937 3 -0.649603985771373 10.539309494825702 15.995821862182774 8.223462326803308 0 0 0
936 2 0.36845767597128054 9.647170979791508 15.741196054109295 8.290951666370137 0 0 0
1033 3 -0.517232733035575 10.46074197298766 16.642530248496698 10.884031419953534 0 0 0
164 1 0.24690082701420607 10.75964297202394 15.330552228370172 5.7274955996924355 0 0 0
166 1 0.2337193844323434 8.280605301201561 15.195715652177743 5.22665750458383 0 0 0
168 1 0.17132745631568735 13.050041422465998 15.109082273764626 6.0878306243318505 0 0 0
294 1 0.0037516890150660308 13.081174317795803 16.48609959723086 6.438917055344353 0 0 0
292 3 -0.49941561824838565 8.160212324250875 16.66839793318281 5.028366833166437 0 0 0
1281 1 0.29525207876383414 12.919870949848084 15.333064864074261 11.270403644205095 0 0 0
152 3 -0.6870823880237229 6.256032536616635 14.975892650533567 3.727496010070356 0 0 0
1282 1 0.2945960955581716 10.482991185464744 15.169400264335811 10.963965302823262 0 0 0
165 3 -0.34103973547519006 11.069477896715608 15.881577147955959 4.6355801444210005 0 0 0
167 1 -0.044294340707098964 9.418184978135244 14.594905404699153 5.571232311597113 0 0 0
1266 1 -0.030936960396008864 7.031457485727011 14.559159490848495 11.81681131406712 0 0 0
1012 2 0.32932953997069475 8.580944893195669 16.13154661924225 9.636465676083052 0 0 0
144 2 0.3868004260464129 6.236668652493346 15.977990684513182 3.6467263350005923 0 0 0
153 1 0.16860124979575802 6.972012315100908 14.620830682775575 5.073620279079241 0 0 0
927 2 0.391415775989686 11.930754644845745 15.003209019396689 8.163698214634852 0 0 0
1284 1 -0.05713618941044454 11.59085728156937 14.509731198085058 11.149688840966437 0 0 0
1268 3 -0.6751197209822004 9.157694744149168 14.518357642729514 13.268403172055399 0 0 0
1379 1 0.033892374946189165 7.099024389048725 17.29928745007625 12.192508695012624 0 0 0
1265 1 0.0327569705087095 4.595570018800524 14.622383300468496 11.993584691907847 0 0 0
1382 1 0.012725276280310192 8.308252586257813 16.62519146468118 12.319710491230017 0 0 0
1381 1 -0.008288674424276155 5.8287677465942185 16.73609758222928 12.007860051092196 0 0 0
1380 1 0.2221597604795148 4.531316266714192 17.457889507711016 11.895274757478319 0 0 0
1267 1 0.2221069883070403 8.368925776865437 15.172317568449163 12.098559061386029 0 0 0
3730 1 0.037207207623267735 3.3402304954938575 15.277005151000346 12.150124208982968 1 0 0
1398 1 0.1881940802038938 12.833565271078307 16.484332439549696 12.502902794028344 0 0 0
1264 1 0.04475082801232496 5.835424480346198 15.332100067493664 11.921712696073913 0 0 0
1401 1 0.28975997273104215 10.595976329312332 17.195614951983387 12.256735996644586 0 0 0
1397 1 -0.011869315728113814 11.816975257085117 17.4141095926231 12.672646084495643 0 0 0
1270 1 0.1618624818925807 9.146250840122036 14.62710385687771 10.907444345515309 0 0 0
1013 3 -0.6270766739618642 8.419619861592594 15.161632778564373 9.63739235885047 0 0 0
924 3 -0.6179773571821783 6.727246413264226 14.63486489549094 7.508769946387786 0 0 0
3409 1 -0.008685381596393937 3.355689457096913 16.68860910397954 12.222985561968796 1 0 0
1014 3 -0.4549644228680706 13.18158245192004 15.851351845519218 10.171951997466838 0 0 0
150 1 -0.03641267316126866 4.726810622235076 14.539005358238976 5.956450099389989 0 0 0
1383 1 -0.05093166711026775 9.40010646010607 17.27415683080192 13.006217972271918 0 0 0
925 2 0.305938925741926 6.182882752576292 14.750806003416796 8.266666371297397 0 0 0
170 1 0.1695197614752683 11.917266941347608 14.363444653534799 6.230485031332116 0 0 0
1400 3 -0.4972531738457454 12.805507159683529 15.652716688615874 13.829292747759647 0 0 0
2182 5 0.40198926517071465 12.399923823471235 13.282019222235554 13.93514372612974 0 0 0
289 1 -0.027730869083761222 9.494561316727504 17.63763541532891 6.8473500884110905 0 0 0
3873 4 -0.7741770288888109 3.7396671964024812 11.96764576681768 8.904420749762771 1 0 0
4149 4 -0.7999912650735667 4.9266768022307685 17.237352864160936 3.496937656256591 1 0 1
2353 5 0.3478419731536345 4.013390771320636 17.543725626800658 3.8489533098757 1 0 1
2056 5 0.42316372784281747 11.497429940402585 18.117597198946186 9.756866356755964 0 0 0
424 3 -0.44880737862907244 8.827651776526295 23.589333303724604 8.507809730700284 0 0 0
1518 1 0.1979266971840063 10.334228127453713 23.63431211615777 12.801573030985155 0 0 0
1411 1 0.2712453734471311 11.136487946172316 20.673487934526865 13.877668001397149 0 0 0
305 1 0.13251158926890994 11.903178656192416 21.44732617659687 6.251364812698832 0 0 0
2542 1 0.04148764693912747 3.180889595338339 23.71272278233034 12.232554706954417 1 0 0
946 2 0.3355144300156344 11.7604887394749 24.094010372938158 8.936186082039363 0 0 0
1390 1 0.2748858336699397 9.10047057551542 18.260164742914522 13.994832443403864 0 0 0
408 1 0.03239984772302205 3.218711230202338 23.950515270149676 6.407547240519248 0 0 0
3978 4 -0.8863107299524259 5.689913448313279 24.268652388554308 3.7273361505808618 1 0 1
2205 4 -0.8163449312548804 8.049549723378776 23.34774446126768 4.474651862973371 0 0 1
304 3 -0.37681159385671653 12.192222082542788 20.759825350796763 4.8753290467754855 0 0 0
2055 4 -0.8662889318013108 11.66247046146374 19.027072809643435 9.526082529591486 0 0 0
425 1 0.017159659317352416 12.961351249973683 23.599368271498548 5.866183657103607 0 0 0
1384 3 -0.4727952301581096 5.846070141803887 20.17601670179041 14.154021073077846 0 0 0
2248 5 0.3951528798756036 9.21789668938047 20.27181584408352 5.038807227428649 0 0 1
1031 3 -0.4364935658356231 4.340974766520484 17.877288308931572 10.431352158735198 0 0 0
303 1 0.144638192706466 13.160447096941606 20.71489623722849 6.0794246412643655 0 0 0
1405 1 0.036207682268085614 13.132093142376284 19.322236628975304 12.511112753563514 0 0 0
426 3 -0.394087725935509 10.874649084733154 23.106549682569874 4.886365841075111 0 0 0
1396 1 0.2267215335360011 9.010048903196385 21.551974840935376 13.396694122315294 0 0 0
1389 3 -0.4097163990423299 10.197541824346487 18.6053257644058 3.44787992834939 0 0 1
3833 5 0.3942169494059413 4.234414395596672 24.104579819802954 8.835458556684674 1 0 0
427 1 0.29521266047477657 11.573896503718007 23.01366907112404 5.915734960399248 0 0 0
2207 5 0.36900256972261886 7.9574379275768345 22.507510782290744 4.976250122400119 0 0 1
1395 1 0.21425001413793582 8.27969110420593 20.565066105914184 12.945050568036983 0 0 0
282 1 0.286076789324646 6.685185276772694 18.323425969193224 8.185501651920383 0 0 0
1404 1 -0.002698281536151207 13.103545231785274 20.690989451551058 12.410820140099641 0 0 0
2247 4 -0.806437187798612 8.440188561703494 20.261099458832263 5.619044865190464 0 0 1
1410 1 -0.005509986143792112 12.04314857330014 21.321744311384073 13.068291419898584 0 0 0
3795 4 -0.8370410044231613 10.19958795151064 20.32597772254047 11.343233995142826 1 0 0
288 1 0.21127770881435542 6.599890765113516 21.723731731199017 7.795345440363914 0 0 0
2249 5 0.3584683870326937 7.6300343967218875 20.227325408571414 5.075324960047656 0 0 1
1387 1 -0.02351769951035081 4.5834780530474015 18.66815489182676 12.646896109651273 0 0 0
280 1 0.2673190470109822 3.4150786080591584 19.171764835963288 7.324254130505667 0 0 0
2057 5 0.36819288469198014 12.60213844767723 19.223777564556755 9.621454305553101 0 0 0
1520 1 0.19030856636252724 12.009452756861322 22.764781136011234 12.853285728599186 0 0 0
295 1 0.029366435642251765 10.925869098837866 20.82072329161152 7.049122045830942 0 0 0
1391 1 -0.023084105264912544 8.25739945774843 19.214938230739115 13.36207267994981 0 0 0
298 1 0.20987688434508664 8.76183970693144 19.526997271558415 8.31675454168439 0 0 0
1388 1 0.2548421574261437 5.789258090718233 19.069978940370397 13.134820159478632 0 0 0
1519 1 0.18574630660164934 13.165129003744694 23.59092827741458 12.464753259494186 0 0 0
297 1 0.049479744082816565 9.706475370849315 18.848799176978517 7.564926014992479 0 0 0
3796 5 0.43162296306541836 10.844672901124202 20.15816490041518 10.6573469956443 1 0 0
2354 5 0.32246525144565125 5.4916974838962815 18.019959318100888 3.7226521709986384 1 0 1
283 1 -0.007202518335559623 5.871307046017421 19.304829084065986 7.542061885634306 0 0 0
1386 1 0.020445576209774694 7.023723305430945 18.597167387192016 12.799724761208905 0 0 0
287 1 0.21208356344982104 5.953735487859463 20.66768455127153 7.195816584449192 0 0 0
1504 1 0.22101055313697224 6.53736748871306 21.689706613738196 12.358915085787384 0 0 0
3832 5 0.4244186123495023 4.616089255803713 22.99748027603696 9.817065499123341 1 0 0
285 1 0.18619551370013582 3.173825353220117 21.416621355799073 7.259961157002795 0 0 0
300 1 0.0175376284225052 13.26372305260672 19.32648530080121 6.463095244877501 0 0 0
3802 5 0.4071227170197745 4.243163144228749 20.92619562469761 10.13086471830572 1 0 0
1393 1 0.20527998764432853 5.613380250456959 21.27342932375262 13.23546044458042 0 0 0
302 1 0.23021946631082307 8.804173799368037 20.8099125532193 8.348717735020138 0 0 0
1507 1 0.017603145225009727 5.545227838972707 23.839073308656808 12.43471795356942 0 0 0
1521 3 -0.39441559779226615 11.321153149524953 23.393575502976713 13.944052847410527 0 0 0
1506 1 -0.004099021880439549 6.73314995534273 23.060204779237534 12.349395927016463 0 0 0
3831 4 -0.9041386162326546 3.9874455217968183 23.292753956101762 9.183245168421717 1 0 0
1503 1 -0.011208039968586603 9.1000285159328 22.89551547092196 12.75817911672056 0 0 0
1505 1 0.00588740586821959 4.374800798383552 23.052715643164856 12.535325850172852 0 0 0
301 1 -0.031359429291894884 9.798963220899788 21.514215509360966 7.63642263098515 0 0 0
421 1 0.25975664876539756 7.758130063797036 23.934860478140514 7.467578383136875 0 0 0
1406 1 0.01095778638757682 12.040491976282517 18.633379147043353 13.195419558053068 0 0 0
277 3 -0.44568392590816786 5.205139235206438 20.9467654645995 5.887387336576782 0 0 0
286 3 -0.4079440992114723 7.5942834807987465 21.535526573191635 8.913084508798246 0 0 0
423 1 0.25042270817945134 9.77737499467545 22.882019305622492 7.664786650210755 0 0 0
1407 1 0.19133877354363377 11.170411578359541 19.35444557070428 14.003344312810283 0 0 0
1392 1 0.2119258350692584 4.2712275570693095 21.83001315448214 13.22229309042726 0 0 0
405 1 0.2143386702864353 4.139813980702663 21.827448627631004 6.375798401271781 0 0 0
281 3 -0.4737552807222765 7.747899407291305 18.741267441301343 9.09814912213731 0 0 0
3803 5 0.39340056198983026 5.750201808013694 21.12085010519429 10.36895164384484 1 0 0
296 1 0.0771220983551911 10.884057081627512 19.436728686786573 7.067351081675503 0 0 0
422 1 0.1078920668716451 10.805662748202815 23.761423964753966 7.186109683061184 0 0 0
1394 3 -0.415289275214882 9.930550581620322 21.349265671889967 14.534322987227641 0 0 0
3378 1 0.062157515412172196 3.342264772301936 19.53897510609897 12.788992729571772 1 0 0
276 3 -0.4823268366088902 3.433991279482833 20.35727308676401 8.24448573619888 0 0 0
1385 3 -0.6397640810512677 3.8706791600250936 22.170269383192203 14.719145307449196 0 0 0
3801 4 -0.8539946662119591 4.86885193443463 21.35259271205131 10.72782845007037 1 0 0
3398 1 0.035948733838100044 3.289247584299609 20.963697916945875 12.762618079253082 1 0 0
2206 5 0.4068910680467329 8.899228138941771 23.414710031739673 4.02608219240191 0 0 1
407 1 0.008332093995669332 4.39705002906601 23.201701194111184 6.2658644089399465 0 0 0
404 1 -0.03278414241798682 6.722788925493895 23.06048400476582 7.068891219630807 0 0 0
1032 3 -0.46418682635285224 7.468117960953411 20.752668442817438 11.672176021119453 0 0 0
3797 5 0.40368349919859137 9.317334308176875 20.124339406830742 11.024968235951127 1 0 0
3979 5 0.47585340254604563 6.641640769318646 24.162062224544396 3.65690515083214 1 0 1
299 1 0.06390370241565592 12.038471099060432 18.62512158161283 6.7598528684703245 0 0 0
945 3 -0.5540150787857487 12.088427011331445 23.675610728220715 8.171611560084184 0 0 0
403 1 0.08588556871541494 5.667279261259862 23.794628634374206 6.39706762465255 0 0 0
4015 5 0.3143386646508458 2.7870086250090274 5.277453849118221 4.521005640460339 1 1 1
414 1 0.009200692794875539 4.530612902485525 27.42627767769441 6.014912806028374 0 0 0
416 1 0.15363533299258042 4.4941437121617485 26.05210344140226 6.196581235993713 0 0 0
419 1 0.00690529360450916 6.900920274479518 27.15888409598217 5.895495406034293 0 0 0
420 1 0.02760337571241704 6.887553569053154 25.773668902715375 6.22423328985715 0 0 0
431 1 0.051135671676621655 9.365723589892315 25.77584907291454 6.59201075737747 0 0 0
530 1 0.02214444574926689 4.5731687584166405 30.2981825643074 5.907365667589529 0 0 0
532 1 0.06013418075267642 3.3625741405416107 29.594839481128773 6.1597592677890365 0 0 0
534 1 -0.011848822804426343 3.3439932555461804 28.126768567855986 6.011507725935436 0 0 0
535 1 0.0004000025642368378 5.771639429306681 28.059923234172857 5.835256352422631 0 0 0
536 1 0.012892292516055396 5.740602836148562 29.506211474020986 5.855267571739994 0 0 0
418 3 -0.44524572364326204 4.896081119943457 25.72432183942587 7.596935787359029 0 0 0
552 1 0.0626256217831302 8.176293021260953 27.773371008402794 5.90239663966443 0 0 0
537 1 0.013290183467482187 7.042516547798479 30.049830400095388 5.677818997926131 0 0 0
551 1 0.038633948009840394 8.165111648301206 29.2241465435497 5.646202773310119 0 0 0
547 1 0.0077874792342928194 9.548980724075346 31.283230636122507 5.578283934557223 0 0 0
433 1 0.04396118025537068 11.754121548900041 25.67765935345864 6.100087770013804 0 0 0
432 1 0.003463053246712075 9.3755674966561 27.068741375100288 6.075597285290158 0 0 0
434 1 -0.007971366665983387 11.695359978221354 26.98314821456584 5.654559765016206 0 0 0
548 1 0.030176367450945672 9.431982711087704 29.85313185887247 5.560593424586359 0 0 0
549 1 0.025707542807433034 10.500309460763637 29.082164654365407 5.3938545886644755 0 0 0
553 1 0.009769861543387092 11.729040063377926 31.238324188472312 4.690836300237148 0 0 0
554 1 0.05183022842960506 11.661807829425575 29.850529238285112 5.062293767814017 0 0 0
550 1 0.22711040165430468 10.458689395357041 27.631055643932413 5.34169223817999 0 0 0
557 1 0.025986212676003963 12.850405601001018 27.624471168433583 5.187827910209813 0 0 0
556 1 0.036406136174555584 12.840850431693847 29.040432407434007 4.800130209062361 0 0 0
429 1 -0.004630074729563449 7.990049242157618 25.1395721988123 6.7837448834544904 0 0 0
430 1 0.0497718044281064 13.0177182473539 24.928129262898782 5.908719504393641 0 0 0
410 1 0.20531842626101543 3.218376371065193 25.4449568953366 5.883076949324925 0 0 0
428 1 0.026425107562458822 10.611940007024437 25.13066246051593 6.687136028087272 0 0 0
412 1 0.14003961041678673 5.617670795259784 25.17120738307864 6.327905688563401 0 0 0
528 3 -0.792341750456302 3.1946490448434375 30.978393526538497 3.6923173353262326 0 0 0
1073 3 -0.5919583042058636 12.535725442640752 27.247852736855695 9.112857565194533 0 0 0
1515 3 -0.4388432729669926 7.333271920674427 25.58163618121965 13.492587743874447 0 0 0
545 3 -0.6283425309674073 10.199102858795825 27.284770750811397 3.827738530446525 0 0 0
546 2 0.332128513467326 10.059705812681909 26.387422383907555 3.786882684983759 0 0 0
1512 3 -0.47548375790089614 4.536539796832013 26.707475751936798 13.575700872360173 0 0 0
2261 5 0.27831010764332403 6.762658900454093 29.281138152598665 14.369060022552128 0 0 0
2445 1 -0.012968932862521022 3.2427205221414774 25.149945164561487 12.086057907264948 1 0 0